M 0.00000 0 (180.00, 980.00, 0.00), (1000.00, 825.00), 60.00
M 0.00000 1 (110.00, 980.00, 0.00), (1000.00, 825.00), 60.00
M 0.00000 2 (40.00, 980.00, 0.00), (1000.00, 825.00), 60.00
M 0.00000 3 (180.00, 630.00, 0.00), (750.00, 675.00), 70.00
M 0.00000 4 (110.00, 630.00, 0.00), (750.00, 675.00), 70.00
s 0.003249092 _0_ RTR  --- 0 message 32 [0 0 0 0] ------- [0:255 -1:255 32 0] 
r 0.003403092 _10_ RTR  --- 0 message 32 [0 ffffffff 0 0] ------- [0:255 -1:255 32 0] 
r 0.003403325 _1_ RTR  --- 0 message 32 [0 ffffffff 0 0] ------- [0:255 -1:255 32 0] 
r 0.003403326 _20_ RTR  --- 0 message 32 [0 ffffffff 0 0] ------- [0:255 -1:255 32 0] 
r 0.003403326 _11_ RTR  --- 0 message 32 [0 ffffffff 0 0] ------- [0:255 -1:255 32 0] 
r 0.003403421 _34_ RTR  --- 0 message 32 [0 ffffffff 0 0] ------- [0:255 -1:255 32 0] 
r 0.003403559 _2_ RTR  --- 0 message 32 [0 ffffffff 0 0] ------- [0:255 -1:255 32 0] 
r 0.003403735 _35_ RTR  --- 0 message 32 [0 ffffffff 0 0] ------- [0:255 -1:255 32 0] 
r 0.003404054 _37_ RTR  --- 0 message 32 [0 ffffffff 0 0] ------- [0:255 -1:255 32 0] 
r 0.003404258 _3_ RTR  --- 0 message 32 [0 ffffffff 0 0] ------- [0:255 -1:255 32 0] 
r 0.003404258 _13_ RTR  --- 0 message 32 [0 ffffffff 0 0] ------- [0:255 -1:255 32 0] 
r 0.003404281 _4_ RTR  --- 0 message 32 [0 ffffffff 0 0] ------- [0:255 -1:255 32 0] 
r 0.003404282 _14_ RTR  --- 0 message 32 [0 ffffffff 0 0] ------- [0:255 -1:255 32 0] 
r 0.003404349 _12_ RTR  --- 0 message 32 [0 ffffffff 0 0] ------- [0:255 -1:255 32 0] 
r 0.003404874 _38_ RTR  --- 0 message 32 [0 ffffffff 0 0] ------- [0:255 -1:255 32 0] 
r 0.003405140 _36_ RTR  --- 0 message 32 [0 ffffffff 0 0] ------- [0:255 -1:255 32 0] 
r 0.003405837 _26_ RTR  --- 0 message 32 [0 ffffffff 0 0] ------- [0:255 -1:255 32 0] 
r 0.003406104 _22_ RTR  --- 0 message 32 [0 ffffffff 0 0] ------- [0:255 -1:255 32 0] 
s 0.030383233 _44_ RTR  --- 1 message 32 [0 0 0 0] ------- [44:255 -1:255 32 0] 
r 0.030537250 _23_ RTR  --- 1 message 32 [0 ffffffff 2c 0] ------- [44:255 -1:255 32 0] 
r 0.030538191 _41_ RTR  --- 1 message 32 [0 ffffffff 2c 0] ------- [44:255 -1:255 32 0] 
r 0.030538233 _27_ RTR  --- 1 message 32 [0 ffffffff 2c 0] ------- [44:255 -1:255 32 0] 
r 0.030538624 _48_ RTR  --- 1 message 32 [0 ffffffff 2c 0] ------- [44:255 -1:255 32 0] 
r 0.030538917 _29_ RTR  --- 1 message 32 [0 ffffffff 2c 0] ------- [44:255 -1:255 32 0] 
r 0.030539131 _47_ RTR  --- 1 message 32 [0 ffffffff 2c 0] ------- [44:255 -1:255 32 0] 
r 0.030539191 _31_ RTR  --- 1 message 32 [0 ffffffff 2c 0] ------- [44:255 -1:255 32 0] 
r 0.030539602 _33_ RTR  --- 1 message 32 [0 ffffffff 2c 0] ------- [44:255 -1:255 32 0] 
r 0.030539739 _42_ RTR  --- 1 message 32 [0 ffffffff 2c 0] ------- [44:255 -1:255 32 0] 
r 0.030539766 _43_ RTR  --- 1 message 32 [0 ffffffff 2c 0] ------- [44:255 -1:255 32 0] 
r 0.030539804 _40_ RTR  --- 1 message 32 [0 ffffffff 2c 0] ------- [44:255 -1:255 32 0] 
r 0.030540129 _8_ RTR  --- 1 message 32 [0 ffffffff 2c 0] ------- [44:255 -1:255 32 0] 
r 0.030540129 _18_ RTR  --- 1 message 32 [0 ffffffff 2c 0] ------- [44:255 -1:255 32 0] 
r 0.030540134 _39_ RTR  --- 1 message 32 [0 ffffffff 2c 0] ------- [44:255 -1:255 32 0] 
r 0.030540254 _5_ RTR  --- 1 message 32 [0 ffffffff 2c 0] ------- [44:255 -1:255 32 0] 
r 0.030540254 _15_ RTR  --- 1 message 32 [0 ffffffff 2c 0] ------- [44:255 -1:255 32 0] 
r 0.030540361 _9_ RTR  --- 1 message 32 [0 ffffffff 2c 0] ------- [44:255 -1:255 32 0] 
r 0.030540361 _19_ RTR  --- 1 message 32 [0 ffffffff 2c 0] ------- [44:255 -1:255 32 0] 
r 0.030540387 _25_ RTR  --- 1 message 32 [0 ffffffff 2c 0] ------- [44:255 -1:255 32 0] 
r 0.030540477 _6_ RTR  --- 1 message 32 [0 ffffffff 2c 0] ------- [44:255 -1:255 32 0] 
r 0.030540477 _16_ RTR  --- 1 message 32 [0 ffffffff 2c 0] ------- [44:255 -1:255 32 0] 
r 0.030540521 _21_ RTR  --- 1 message 32 [0 ffffffff 2c 0] ------- [44:255 -1:255 32 0] 
r 0.030540583 _28_ RTR  --- 1 message 32 [0 ffffffff 2c 0] ------- [44:255 -1:255 32 0] 
r 0.030540594 _17_ RTR  --- 1 message 32 [0 ffffffff 2c 0] ------- [44:255 -1:255 32 0] 
r 0.030540702 _7_ RTR  --- 1 message 32 [0 ffffffff 2c 0] ------- [44:255 -1:255 32 0] 
r 0.030540729 _30_ RTR  --- 1 message 32 [0 ffffffff 2c 0] ------- [44:255 -1:255 32 0] 
r 0.030540932 _46_ RTR  --- 1 message 32 [0 ffffffff 2c 0] ------- [44:255 -1:255 32 0] 
r 0.030540975 _32_ RTR  --- 1 message 32 [0 ffffffff 2c 0] ------- [44:255 -1:255 32 0] 
r 0.030541150 _45_ RTR  --- 1 message 32 [0 ffffffff 2c 0] ------- [44:255 -1:255 32 0] 
s 0.033957718 _2_ RTR  --- 2 message 32 [0 0 0 0] ------- [2:255 -1:255 32 0] 
r 0.034111945 _11_ RTR  --- 2 message 32 [0 ffffffff 2 0] ------- [2:255 -1:255 32 0] 
r 0.034111945 _20_ RTR  --- 2 message 32 [0 ffffffff 2 0] ------- [2:255 -1:255 32 0] 
r 0.034111951 _1_ RTR  --- 2 message 32 [0 ffffffff 2 0] ------- [2:255 -1:255 32 0] 
r 0.034112178 _10_ RTR  --- 2 message 32 [0 ffffffff 2 0] ------- [2:255 -1:255 32 0] 
r 0.034112185 _0_ RTR  --- 2 message 32 [0 ffffffff 2 0] ------- [2:255 -1:255 32 0] 
r 0.034112450 _34_ RTR  --- 2 message 32 [0 ffffffff 2 0] ------- [2:255 -1:255 32 0] 
r 0.034112634 _35_ RTR  --- 2 message 32 [0 ffffffff 2 0] ------- [2:255 -1:255 32 0] 
r 0.034112880 _37_ RTR  --- 2 message 32 [0 ffffffff 2 0] ------- [2:255 -1:255 32 0] 
r 0.034112884 _12_ RTR  --- 2 message 32 [0 ffffffff 2 0] ------- [2:255 -1:255 32 0] 
r 0.034112905 _14_ RTR  --- 2 message 32 [0 ffffffff 2 0] ------- [2:255 -1:255 32 0] 
r 0.034112906 _4_ RTR  --- 2 message 32 [0 ffffffff 2 0] ------- [2:255 -1:255 32 0] 
r 0.034112971 _13_ RTR  --- 2 message 32 [0 ffffffff 2 0] ------- [2:255 -1:255 32 0] 
r 0.034112973 _3_ RTR  --- 2 message 32 [0 ffffffff 2 0] ------- [2:255 -1:255 32 0] 
r 0.034113615 _38_ RTR  --- 2 message 32 [0 ffffffff 2 0] ------- [2:255 -1:255 32 0] 
r 0.034114199 _36_ RTR  --- 2 message 32 [0 ffffffff 2 0] ------- [2:255 -1:255 32 0] 
r 0.034114922 _26_ RTR  --- 2 message 32 [0 ffffffff 2 0] ------- [2:255 -1:255 32 0] 
r 0.034115153 _22_ RTR  --- 2 message 32 [0 ffffffff 2 0] ------- [2:255 -1:255 32 0] 
s 0.087451258 _13_ RTR  --- 3 message 32 [0 0 0 0] ------- [13:255 -1:255 32 0] 
r 0.087605278 _3_ RTR  --- 3 message 32 [0 ffffffff d 0] ------- [13:255 -1:255 32 0] 
r 0.087605471 _4_ RTR  --- 3 message 32 [0 ffffffff d 0] ------- [13:255 -1:255 32 0] 
r 0.087605491 _14_ RTR  --- 3 message 32 [0 ffffffff d 0] ------- [13:255 -1:255 32 0] 
r 0.087605588 _37_ RTR  --- 3 message 32 [0 ffffffff d 0] ------- [13:255 -1:255 32 0] 
r 0.087605725 _12_ RTR  --- 3 message 32 [0 ffffffff d 0] ------- [13:255 -1:255 32 0] 
r 0.087605871 _35_ RTR  --- 3 message 32 [0 ffffffff d 0] ------- [13:255 -1:255 32 0] 
r 0.087605902 _38_ RTR  --- 3 message 32 [0 ffffffff d 0] ------- [13:255 -1:255 32 0] 
r 0.087606422 _0_ RTR  --- 3 message 32 [0 ffffffff d 0] ------- [13:255 -1:255 32 0] 
r 0.087606425 _10_ RTR  --- 3 message 32 [0 ffffffff d 0] ------- [13:255 -1:255 32 0] 
r 0.087606442 _1_ RTR  --- 3 message 32 [0 ffffffff d 0] ------- [13:255 -1:255 32 0] 
r 0.087606448 _20_ RTR  --- 3 message 32 [0 ffffffff d 0] ------- [13:255 -1:255 32 0] 
r 0.087606448 _11_ RTR  --- 3 message 32 [0 ffffffff d 0] ------- [13:255 -1:255 32 0] 
r 0.087606506 _2_ RTR  --- 3 message 32 [0 ffffffff d 0] ------- [13:255 -1:255 32 0] 
r 0.087606677 _34_ RTR  --- 3 message 32 [0 ffffffff d 0] ------- [13:255 -1:255 32 0] 
r 0.087607200 _36_ RTR  --- 3 message 32 [0 ffffffff d 0] ------- [13:255 -1:255 32 0] 
r 0.087607993 _22_ RTR  --- 3 message 32 [0 ffffffff d 0] ------- [13:255 -1:255 32 0] 
r 0.087608136 _26_ RTR  --- 3 message 32 [0 ffffffff d 0] ------- [13:255 -1:255 32 0] 
s 0.124532212 _43_ RTR  --- 4 message 32 [0 0 0 0] ------- [43:255 -1:255 32 0] 
r 0.124686675 _8_ RTR  --- 4 message 32 [0 ffffffff 2b 0] ------- [43:255 -1:255 32 0] 
r 0.124686675 _18_ RTR  --- 4 message 32 [0 ffffffff 2b 0] ------- [43:255 -1:255 32 0] 
r 0.124686887 _9_ RTR  --- 4 message 32 [0 ffffffff 2b 0] ------- [43:255 -1:255 32 0] 
r 0.124686887 _19_ RTR  --- 4 message 32 [0 ffffffff 2b 0] ------- [43:255 -1:255 32 0] 
r 0.124687046 _42_ RTR  --- 4 message 32 [0 ffffffff 2b 0] ------- [43:255 -1:255 32 0] 
r 0.124687110 _17_ RTR  --- 4 message 32 [0 ffffffff 2b 0] ------- [43:255 -1:255 32 0] 
r 0.124687379 _40_ RTR  --- 4 message 32 [0 ffffffff 2b 0] ------- [43:255 -1:255 32 0] 
r 0.124687668 _5_ RTR  --- 4 message 32 [0 ffffffff 2b 0] ------- [43:255 -1:255 32 0] 
r 0.124687668 _15_ RTR  --- 4 message 32 [0 ffffffff 2b 0] ------- [43:255 -1:255 32 0] 
r 0.124687749 _6_ RTR  --- 4 message 32 [0 ffffffff 2b 0] ------- [43:255 -1:255 32 0] 
r 0.124687749 _16_ RTR  --- 4 message 32 [0 ffffffff 2b 0] ------- [43:255 -1:255 32 0] 
r 0.124687859 _7_ RTR  --- 4 message 32 [0 ffffffff 2b 0] ------- [43:255 -1:255 32 0] 
r 0.124688156 _41_ RTR  --- 4 message 32 [0 ffffffff 2b 0] ------- [43:255 -1:255 32 0] 
r 0.124688212 _39_ RTR  --- 4 message 32 [0 ffffffff 2b 0] ------- [43:255 -1:255 32 0] 
r 0.124688746 _44_ RTR  --- 4 message 32 [0 ffffffff 2b 0] ------- [43:255 -1:255 32 0] 
r 0.124688762 _23_ RTR  --- 4 message 32 [0 ffffffff 2b 0] ------- [43:255 -1:255 32 0] 
r 0.124689128 _27_ RTR  --- 4 message 32 [0 ffffffff 2b 0] ------- [43:255 -1:255 32 0] 
r 0.124690049 _48_ RTR  --- 4 message 32 [0 ffffffff 2b 0] ------- [43:255 -1:255 32 0] 
s 0.178032621 _3_ RTR  --- 5 message 32 [0 0 0 0] ------- [3:255 -1:255 32 0] 
r 0.178186663 _13_ RTR  --- 5 message 32 [0 ffffffff 3 0] ------- [3:255 -1:255 32 0] 
r 0.178186854 _4_ RTR  --- 5 message 32 [0 ffffffff 3 0] ------- [3:255 -1:255 32 0] 
r 0.178186896 _14_ RTR  --- 5 message 32 [0 ffffffff 3 0] ------- [3:255 -1:255 32 0] 
r 0.178186921 _37_ RTR  --- 5 message 32 [0 ffffffff 3 0] ------- [3:255 -1:255 32 0] 
r 0.178187129 _12_ RTR  --- 5 message 32 [0 ffffffff 3 0] ------- [3:255 -1:255 32 0] 
r 0.178187216 _35_ RTR  --- 5 message 32 [0 ffffffff 3 0] ------- [3:255 -1:255 32 0] 
r 0.178187254 _38_ RTR  --- 5 message 32 [0 ffffffff 3 0] ------- [3:255 -1:255 32 0] 
r 0.178187778 _0_ RTR  --- 5 message 32 [0 ffffffff 3 0] ------- [3:255 -1:255 32 0] 
r 0.178187785 _10_ RTR  --- 5 message 32 [0 ffffffff 3 0] ------- [3:255 -1:255 32 0] 
r 0.178187803 _1_ RTR  --- 5 message 32 [0 ffffffff 3 0] ------- [3:255 -1:255 32 0] 
r 0.178187817 _20_ RTR  --- 5 message 32 [0 ffffffff 3 0] ------- [3:255 -1:255 32 0] 
r 0.178187817 _11_ RTR  --- 5 message 32 [0 ffffffff 3 0] ------- [3:255 -1:255 32 0] 
r 0.178187872 _2_ RTR  --- 5 message 32 [0 ffffffff 3 0] ------- [3:255 -1:255 32 0] 
r 0.178188031 _34_ RTR  --- 5 message 32 [0 ffffffff 3 0] ------- [3:255 -1:255 32 0] 
r 0.178188522 _36_ RTR  --- 5 message 32 [0 ffffffff 3 0] ------- [3:255 -1:255 32 0] 
r 0.178189315 _22_ RTR  --- 5 message 32 [0 ffffffff 3 0] ------- [3:255 -1:255 32 0] 
r 0.178189458 _26_ RTR  --- 5 message 32 [0 ffffffff 3 0] ------- [3:255 -1:255 32 0] 
s 0.193194926 _19_ RTR  --- 6 message 32 [0 0 0 0] ------- [19:255 -1:255 32 0] 
r 0.193348926 _9_ RTR  --- 6 message 32 [0 ffffffff 13 0] ------- [19:255 -1:255 32 0] 
r 0.193349159 _18_ RTR  --- 6 message 32 [0 ffffffff 13 0] ------- [19:255 -1:255 32 0] 
r 0.193349159 _8_ RTR  --- 6 message 32 [0 ffffffff 13 0] ------- [19:255 -1:255 32 0] 
r 0.193349159 _17_ RTR  --- 6 message 32 [0 ffffffff 13 0] ------- [19:255 -1:255 32 0] 
r 0.193349601 _43_ RTR  --- 6 message 32 [0 ffffffff 13 0] ------- [19:255 -1:255 32 0] 
r 0.193349799 _42_ RTR  --- 6 message 32 [0 ffffffff 13 0] ------- [19:255 -1:255 32 0] 
r 0.193350054 _40_ RTR  --- 6 message 32 [0 ffffffff 13 0] ------- [19:255 -1:255 32 0] 
r 0.193350093 _16_ RTR  --- 6 message 32 [0 ffffffff 13 0] ------- [19:255 -1:255 32 0] 
r 0.193350093 _6_ RTR  --- 6 message 32 [0 ffffffff 13 0] ------- [19:255 -1:255 32 0] 
r 0.193350116 _15_ RTR  --- 6 message 32 [0 ffffffff 13 0] ------- [19:255 -1:255 32 0] 
r 0.193350116 _5_ RTR  --- 6 message 32 [0 ffffffff 13 0] ------- [19:255 -1:255 32 0] 
r 0.193350116 _7_ RTR  --- 6 message 32 [0 ffffffff 13 0] ------- [19:255 -1:255 32 0] 
r 0.193350803 _39_ RTR  --- 6 message 32 [0 ffffffff 13 0] ------- [19:255 -1:255 32 0] 
r 0.193351351 _41_ RTR  --- 6 message 32 [0 ffffffff 13 0] ------- [19:255 -1:255 32 0] 
r 0.193352054 _44_ RTR  --- 6 message 32 [0 ffffffff 13 0] ------- [19:255 -1:255 32 0] 
r 0.193352071 _23_ RTR  --- 6 message 32 [0 ffffffff 13 0] ------- [19:255 -1:255 32 0] 
r 0.193352306 _27_ RTR  --- 6 message 32 [0 ffffffff 13 0] ------- [19:255 -1:255 32 0] 
s 0.223725929 _36_ RTR  --- 7 message 32 [0 0 0 0] ------- [36:255 -1:255 32 0] 
r 0.223880901 _22_ RTR  --- 7 message 32 [0 ffffffff 24 0] ------- [36:255 -1:255 32 0] 
r 0.223880901 _26_ RTR  --- 7 message 32 [0 ffffffff 24 0] ------- [36:255 -1:255 32 0] 
r 0.223881604 _37_ RTR  --- 7 message 32 [0 ffffffff 24 0] ------- [36:255 -1:255 32 0] 
r 0.223881604 _35_ RTR  --- 7 message 32 [0 ffffffff 24 0] ------- [36:255 -1:255 32 0] 
r 0.223881819 _3_ RTR  --- 7 message 32 [0 ffffffff 24 0] ------- [36:255 -1:255 32 0] 
r 0.223881871 _13_ RTR  --- 7 message 32 [0 ffffffff 24 0] ------- [36:255 -1:255 32 0] 
r 0.223881873 _38_ RTR  --- 7 message 32 [0 ffffffff 24 0] ------- [36:255 -1:255 32 0] 
r 0.223881873 _34_ RTR  --- 7 message 32 [0 ffffffff 24 0] ------- [36:255 -1:255 32 0] 
r 0.223881934 _0_ RTR  --- 7 message 32 [0 ffffffff 24 0] ------- [36:255 -1:255 32 0] 
r 0.223881978 _10_ RTR  --- 7 message 32 [0 ffffffff 24 0] ------- [36:255 -1:255 32 0] 
r 0.223882048 _4_ RTR  --- 7 message 32 [0 ffffffff 24 0] ------- [36:255 -1:255 32 0] 
r 0.223882100 _14_ RTR  --- 7 message 32 [0 ffffffff 24 0] ------- [36:255 -1:255 32 0] 
r 0.223882152 _1_ RTR  --- 7 message 32 [0 ffffffff 24 0] ------- [36:255 -1:255 32 0] 
r 0.223882196 _20_ RTR  --- 7 message 32 [0 ffffffff 24 0] ------- [36:255 -1:255 32 0] 
r 0.223882196 _11_ RTR  --- 7 message 32 [0 ffffffff 24 0] ------- [36:255 -1:255 32 0] 
r 0.223882251 _45_ RTR  --- 7 message 32 [0 ffffffff 24 0] ------- [36:255 -1:255 32 0] 
r 0.223882251 _46_ RTR  --- 7 message 32 [0 ffffffff 24 0] ------- [36:255 -1:255 32 0] 
r 0.223882330 _12_ RTR  --- 7 message 32 [0 ffffffff 24 0] ------- [36:255 -1:255 32 0] 
r 0.223882373 _2_ RTR  --- 7 message 32 [0 ffffffff 24 0] ------- [36:255 -1:255 32 0] 
r 0.223882479 _28_ RTR  --- 7 message 32 [0 ffffffff 24 0] ------- [36:255 -1:255 32 0] 
r 0.223882479 _30_ RTR  --- 7 message 32 [0 ffffffff 24 0] ------- [36:255 -1:255 32 0] 
r 0.223883238 _24_ RTR  --- 7 message 32 [0 ffffffff 24 0] ------- [36:255 -1:255 32 0] 
r 0.223883238 _32_ RTR  --- 7 message 32 [0 ffffffff 24 0] ------- [36:255 -1:255 32 0] 
s 0.224944633 _42_ RTR  --- 8 message 32 [0 0 0 0] ------- [42:255 -1:255 32 0] 
r 0.225098966 _40_ RTR  --- 8 message 32 [0 ffffffff 2a 0] ------- [42:255 -1:255 32 0] 
r 0.225099327 _5_ RTR  --- 8 message 32 [0 ffffffff 2a 0] ------- [42:255 -1:255 32 0] 
r 0.225099327 _15_ RTR  --- 8 message 32 [0 ffffffff 2a 0] ------- [42:255 -1:255 32 0] 
r 0.225099354 _8_ RTR  --- 8 message 32 [0 ffffffff 2a 0] ------- [42:255 -1:255 32 0] 
r 0.225099354 _18_ RTR  --- 8 message 32 [0 ffffffff 2a 0] ------- [42:255 -1:255 32 0] 
r 0.225099466 _43_ RTR  --- 8 message 32 [0 ffffffff 2a 0] ------- [42:255 -1:255 32 0] 
r 0.225099483 _6_ RTR  --- 8 message 32 [0 ffffffff 2a 0] ------- [42:255 -1:255 32 0] 
r 0.225099483 _16_ RTR  --- 8 message 32 [0 ffffffff 2a 0] ------- [42:255 -1:255 32 0] 
r 0.225099505 _9_ RTR  --- 8 message 32 [0 ffffffff 2a 0] ------- [42:255 -1:255 32 0] 
r 0.225099505 _19_ RTR  --- 8 message 32 [0 ffffffff 2a 0] ------- [42:255 -1:255 32 0] 
r 0.225099668 _7_ RTR  --- 8 message 32 [0 ffffffff 2a 0] ------- [42:255 -1:255 32 0] 
r 0.225099687 _17_ RTR  --- 8 message 32 [0 ffffffff 2a 0] ------- [42:255 -1:255 32 0] 
r 0.225099800 _39_ RTR  --- 8 message 32 [0 ffffffff 2a 0] ------- [42:255 -1:255 32 0] 
r 0.225100308 _41_ RTR  --- 8 message 32 [0 ffffffff 2a 0] ------- [42:255 -1:255 32 0] 
r 0.225101139 _44_ RTR  --- 8 message 32 [0 ffffffff 2a 0] ------- [42:255 -1:255 32 0] 
r 0.225101155 _23_ RTR  --- 8 message 32 [0 ffffffff 2a 0] ------- [42:255 -1:255 32 0] 
r 0.225101220 _27_ RTR  --- 8 message 32 [0 ffffffff 2a 0] ------- [42:255 -1:255 32 0] 
r 0.225102524 _48_ RTR  --- 8 message 32 [0 ffffffff 2a 0] ------- [42:255 -1:255 32 0] 
r 0.225102595 _47_ RTR  --- 8 message 32 [0 ffffffff 2a 0] ------- [42:255 -1:255 32 0] 
s 0.234896915 _15_ RTR  --- 9 message 32 [0 0 0 0] ------- [15:255 -1:255 32 0] 
r 0.235050915 _5_ RTR  --- 9 message 32 [0 ffffffff f 0] ------- [15:255 -1:255 32 0] 
r 0.235051148 _6_ RTR  --- 9 message 32 [0 ffffffff f 0] ------- [15:255 -1:255 32 0] 
r 0.235051148 _16_ RTR  --- 9 message 32 [0 ffffffff f 0] ------- [15:255 -1:255 32 0] 
r 0.235051378 _40_ RTR  --- 9 message 32 [0 ffffffff f 0] ------- [15:255 -1:255 32 0] 
r 0.235051382 _7_ RTR  --- 9 message 32 [0 ffffffff f 0] ------- [15:255 -1:255 32 0] 
r 0.235051609 _42_ RTR  --- 9 message 32 [0 ffffffff f 0] ------- [15:255 -1:255 32 0] 
r 0.235051636 _39_ RTR  --- 9 message 32 [0 ffffffff f 0] ------- [15:255 -1:255 32 0] 
r 0.235052082 _8_ RTR  --- 9 message 32 [0 ffffffff f 0] ------- [15:255 -1:255 32 0] 
r 0.235052082 _18_ RTR  --- 9 message 32 [0 ffffffff f 0] ------- [15:255 -1:255 32 0] 
r 0.235052105 _9_ RTR  --- 9 message 32 [0 ffffffff f 0] ------- [15:255 -1:255 32 0] 
r 0.235052105 _19_ RTR  --- 9 message 32 [0 ffffffff f 0] ------- [15:255 -1:255 32 0] 
r 0.235052171 _17_ RTR  --- 9 message 32 [0 ffffffff f 0] ------- [15:255 -1:255 32 0] 
r 0.235052371 _43_ RTR  --- 9 message 32 [0 ffffffff f 0] ------- [15:255 -1:255 32 0] 
r 0.235053020 _41_ RTR  --- 9 message 32 [0 ffffffff f 0] ------- [15:255 -1:255 32 0] 
r 0.235053817 _27_ RTR  --- 9 message 32 [0 ffffffff f 0] ------- [15:255 -1:255 32 0] 
r 0.235053935 _44_ RTR  --- 9 message 32 [0 ffffffff f 0] ------- [15:255 -1:255 32 0] 
r 0.235053951 _23_ RTR  --- 9 message 32 [0 ffffffff f 0] ------- [15:255 -1:255 32 0] 
s 0.253565397 _47_ RTR  --- 10 message 32 [0 0 0 0] ------- [47:255 -1:255 32 0] 
r 0.253719868 _31_ RTR  --- 10 message 32 [0 ffffffff 2f 0] ------- [47:255 -1:255 32 0] 
r 0.253720771 _29_ RTR  --- 10 message 32 [0 ffffffff 2f 0] ------- [47:255 -1:255 32 0] 
r 0.253720771 _25_ RTR  --- 10 message 32 [0 ffffffff 2f 0] ------- [47:255 -1:255 32 0] 
r 0.253720771 _27_ RTR  --- 10 message 32 [0 ffffffff 2f 0] ------- [47:255 -1:255 32 0] 
r 0.253721064 _48_ RTR  --- 10 message 32 [0 ffffffff 2f 0] ------- [47:255 -1:255 32 0] 
r 0.253721283 _23_ RTR  --- 10 message 32 [0 ffffffff 2f 0] ------- [47:255 -1:255 32 0] 
r 0.253721294 _44_ RTR  --- 10 message 32 [0 ffffffff 2f 0] ------- [47:255 -1:255 32 0] 
r 0.253721425 _30_ RTR  --- 10 message 32 [0 ffffffff 2f 0] ------- [47:255 -1:255 32 0] 
r 0.253721718 _41_ RTR  --- 10 message 32 [0 ffffffff 2f 0] ------- [47:255 -1:255 32 0] 
r 0.253721730 _45_ RTR  --- 10 message 32 [0 ffffffff 2f 0] ------- [47:255 -1:255 32 0] 
r 0.253721801 _28_ RTR  --- 10 message 32 [0 ffffffff 2f 0] ------- [47:255 -1:255 32 0] 
r 0.253721801 _24_ RTR  --- 10 message 32 [0 ffffffff 2f 0] ------- [47:255 -1:255 32 0] 
r 0.253722264 _46_ RTR  --- 10 message 32 [0 ffffffff 2f 0] ------- [47:255 -1:255 32 0] 
r 0.253722415 _33_ RTR  --- 10 message 32 [0 ffffffff 2f 0] ------- [47:255 -1:255 32 0] 
r 0.253722894 _21_ RTR  --- 10 message 32 [0 ffffffff 2f 0] ------- [47:255 -1:255 32 0] 
r 0.253723002 _32_ RTR  --- 10 message 32 [0 ffffffff 2f 0] ------- [47:255 -1:255 32 0] 
r 0.253723079 _26_ RTR  --- 10 message 32 [0 ffffffff 2f 0] ------- [47:255 -1:255 32 0] 
r 0.253723234 _39_ RTR  --- 10 message 32 [0 ffffffff 2f 0] ------- [47:255 -1:255 32 0] 
r 0.253723288 _40_ RTR  --- 10 message 32 [0 ffffffff 2f 0] ------- [47:255 -1:255 32 0] 
r 0.253723299 _22_ RTR  --- 10 message 32 [0 ffffffff 2f 0] ------- [47:255 -1:255 32 0] 
r 0.253723359 _42_ RTR  --- 10 message 32 [0 ffffffff 2f 0] ------- [47:255 -1:255 32 0] 
s 0.333874899 _12_ RTR  --- 11 message 32 [0 0 0 0] ------- [12:255 -1:255 32 0] 
r 0.334029132 _14_ RTR  --- 11 message 32 [0 ffffffff c 0] ------- [12:255 -1:255 32 0] 
r 0.334029210 _4_ RTR  --- 11 message 32 [0 ffffffff c 0] ------- [12:255 -1:255 32 0] 
r 0.334029366 _13_ RTR  --- 11 message 32 [0 ffffffff c 0] ------- [12:255 -1:255 32 0] 
r 0.334029443 _3_ RTR  --- 11 message 32 [0 ffffffff c 0] ------- [12:255 -1:255 32 0] 
r 0.334029637 _37_ RTR  --- 11 message 32 [0 ffffffff c 0] ------- [12:255 -1:255 32 0] 
r 0.334029800 _35_ RTR  --- 11 message 32 [0 ffffffff c 0] ------- [12:255 -1:255 32 0] 
r 0.334029821 _38_ RTR  --- 11 message 32 [0 ffffffff c 0] ------- [12:255 -1:255 32 0] 
r 0.334030057 _2_ RTR  --- 11 message 32 [0 ffffffff c 0] ------- [12:255 -1:255 32 0] 
r 0.334030089 _11_ RTR  --- 11 message 32 [0 ffffffff c 0] ------- [12:255 -1:255 32 0] 
r 0.334030089 _20_ RTR  --- 11 message 32 [0 ffffffff c 0] ------- [12:255 -1:255 32 0] 
r 0.334030092 _1_ RTR  --- 11 message 32 [0 ffffffff c 0] ------- [12:255 -1:255 32 0] 
r 0.334030156 _10_ RTR  --- 11 message 32 [0 ffffffff c 0] ------- [12:255 -1:255 32 0] 
r 0.334030170 _0_ RTR  --- 11 message 32 [0 ffffffff c 0] ------- [12:255 -1:255 32 0] 
r 0.334030464 _34_ RTR  --- 11 message 32 [0 ffffffff c 0] ------- [12:255 -1:255 32 0] 
r 0.334031299 _36_ RTR  --- 11 message 32 [0 ffffffff c 0] ------- [12:255 -1:255 32 0] 
r 0.334032101 _22_ RTR  --- 11 message 32 [0 ffffffff c 0] ------- [12:255 -1:255 32 0] 
r 0.334032223 _26_ RTR  --- 11 message 32 [0 ffffffff c 0] ------- [12:255 -1:255 32 0] 
s 0.356245767 _18_ RTR  --- 12 message 32 [0 0 0 0] ------- [18:255 -1:255 32 0] 
r 0.356399767 _8_ RTR  --- 12 message 32 [0 ffffffff 12 0] ------- [18:255 -1:255 32 0] 
r 0.356400000 _9_ RTR  --- 12 message 32 [0 ffffffff 12 0] ------- [18:255 -1:255 32 0] 
r 0.356400000 _19_ RTR  --- 12 message 32 [0 ffffffff 12 0] ------- [18:255 -1:255 32 0] 
r 0.356400230 _43_ RTR  --- 12 message 32 [0 ffffffff 12 0] ------- [18:255 -1:255 32 0] 
r 0.356400233 _17_ RTR  --- 12 message 32 [0 ffffffff 12 0] ------- [18:255 -1:255 32 0] 
r 0.356400488 _42_ RTR  --- 12 message 32 [0 ffffffff 12 0] ------- [18:255 -1:255 32 0] 
r 0.356400782 _40_ RTR  --- 12 message 32 [0 ffffffff 12 0] ------- [18:255 -1:255 32 0] 
r 0.356400933 _15_ RTR  --- 12 message 32 [0 ffffffff 12 0] ------- [18:255 -1:255 32 0] 
r 0.356400933 _5_ RTR  --- 12 message 32 [0 ffffffff 12 0] ------- [18:255 -1:255 32 0] 
r 0.356400957 _6_ RTR  --- 12 message 32 [0 ffffffff 12 0] ------- [18:255 -1:255 32 0] 
r 0.356400957 _16_ RTR  --- 12 message 32 [0 ffffffff 12 0] ------- [18:255 -1:255 32 0] 
r 0.356401023 _7_ RTR  --- 12 message 32 [0 ffffffff 12 0] ------- [18:255 -1:255 32 0] 
r 0.356401578 _39_ RTR  --- 12 message 32 [0 ffffffff 12 0] ------- [18:255 -1:255 32 0] 
r 0.356401971 _41_ RTR  --- 12 message 32 [0 ffffffff 12 0] ------- [18:255 -1:255 32 0] 
r 0.356402662 _44_ RTR  --- 12 message 32 [0 ffffffff 12 0] ------- [18:255 -1:255 32 0] 
r 0.356402679 _23_ RTR  --- 12 message 32 [0 ffffffff 12 0] ------- [18:255 -1:255 32 0] 
r 0.356402931 _27_ RTR  --- 12 message 32 [0 ffffffff 12 0] ------- [18:255 -1:255 32 0] 
s 0.380191714 _38_ RTR  --- 13 message 32 [0 0 0 0] ------- [38:255 -1:255 32 0] 
r 0.380346338 _3_ RTR  --- 13 message 32 [0 ffffffff 26 0] ------- [38:255 -1:255 32 0] 
r 0.380346358 _13_ RTR  --- 13 message 32 [0 ffffffff 26 0] ------- [38:255 -1:255 32 0] 
r 0.380346428 _4_ RTR  --- 13 message 32 [0 ffffffff 26 0] ------- [38:255 -1:255 32 0] 
r 0.380346474 _14_ RTR  --- 13 message 32 [0 ffffffff 26 0] ------- [38:255 -1:255 32 0] 
r 0.380346547 _37_ RTR  --- 13 message 32 [0 ffffffff 26 0] ------- [38:255 -1:255 32 0] 
r 0.380346636 _12_ RTR  --- 13 message 32 [0 ffffffff 26 0] ------- [38:255 -1:255 32 0] 
r 0.380346880 _35_ RTR  --- 13 message 32 [0 ffffffff 26 0] ------- [38:255 -1:255 32 0] 
r 0.380347473 _0_ RTR  --- 13 message 32 [0 ffffffff 26 0] ------- [38:255 -1:255 32 0] 
r 0.380347496 _10_ RTR  --- 13 message 32 [0 ffffffff 26 0] ------- [38:255 -1:255 32 0] 
r 0.380347511 _1_ RTR  --- 13 message 32 [0 ffffffff 26 0] ------- [38:255 -1:255 32 0] 
r 0.380347541 _20_ RTR  --- 13 message 32 [0 ffffffff 26 0] ------- [38:255 -1:255 32 0] 
r 0.380347541 _11_ RTR  --- 13 message 32 [0 ffffffff 26 0] ------- [38:255 -1:255 32 0] 
r 0.380347576 _2_ RTR  --- 13 message 32 [0 ffffffff 26 0] ------- [38:255 -1:255 32 0] 
r 0.380347657 _36_ RTR  --- 13 message 32 [0 ffffffff 26 0] ------- [38:255 -1:255 32 0] 
r 0.380347714 _34_ RTR  --- 13 message 32 [0 ffffffff 26 0] ------- [38:255 -1:255 32 0] 
r 0.380348263 _22_ RTR  --- 13 message 32 [0 ffffffff 26 0] ------- [38:255 -1:255 32 0] 
r 0.380348629 _26_ RTR  --- 13 message 32 [0 ffffffff 26 0] ------- [38:255 -1:255 32 0] 
r 0.380349551 _46_ RTR  --- 13 message 32 [0 ffffffff 26 0] ------- [38:255 -1:255 32 0] 
M 0.40000 5 (3370.00, 870.00, 0.00), (2750.00, 825.00), 60.00
M 0.40000 6 (3440.00, 870.00, 0.00), (2750.00, 825.00), 60.00
M 0.40000 7 (3510.00, 870.00, 0.00), (2750.00, 825.00), 60.00
M 0.40000 8 (3370.00, 520.00, 0.00), (2750.00, 675.00), 70.00
M 0.40000 9 (3440.00, 520.00, 0.00), (2750.00, 675.00), 70.00
s 0.435153218 _29_ RTR  --- 14 message 32 [0 0 0 0] ------- [29:255 -1:255 32 0] 
r 0.435307689 _48_ RTR  --- 14 message 32 [0 ffffffff 1d 0] ------- [29:255 -1:255 32 0] 
r 0.435308218 _31_ RTR  --- 14 message 32 [0 ffffffff 1d 0] ------- [29:255 -1:255 32 0] 
r 0.435308592 _47_ RTR  --- 14 message 32 [0 ffffffff 1d 0] ------- [29:255 -1:255 32 0] 
r 0.435308884 _28_ RTR  --- 14 message 32 [0 ffffffff 1d 0] ------- [29:255 -1:255 32 0] 
r 0.435308884 _33_ RTR  --- 14 message 32 [0 ffffffff 1d 0] ------- [29:255 -1:255 32 0] 
r 0.435308884 _23_ RTR  --- 14 message 32 [0 ffffffff 1d 0] ------- [29:255 -1:255 32 0] 
r 0.435308901 _44_ RTR  --- 14 message 32 [0 ffffffff 1d 0] ------- [29:255 -1:255 32 0] 
r 0.435309161 _30_ RTR  --- 14 message 32 [0 ffffffff 1d 0] ------- [29:255 -1:255 32 0] 
r 0.435309161 _27_ RTR  --- 14 message 32 [0 ffffffff 1d 0] ------- [29:255 -1:255 32 0] 
r 0.435309245 _46_ RTR  --- 14 message 32 [0 ffffffff 1d 0] ------- [29:255 -1:255 32 0] 
r 0.435309365 _21_ RTR  --- 14 message 32 [0 ffffffff 1d 0] ------- [29:255 -1:255 32 0] 
r 0.435309575 _32_ RTR  --- 14 message 32 [0 ffffffff 1d 0] ------- [29:255 -1:255 32 0] 
r 0.435309621 _45_ RTR  --- 14 message 32 [0 ffffffff 1d 0] ------- [29:255 -1:255 32 0] 
r 0.435309767 _41_ RTR  --- 14 message 32 [0 ffffffff 1d 0] ------- [29:255 -1:255 32 0] 
r 0.435309884 _25_ RTR  --- 14 message 32 [0 ffffffff 1d 0] ------- [29:255 -1:255 32 0] 
r 0.435310362 _24_ RTR  --- 14 message 32 [0 ffffffff 1d 0] ------- [29:255 -1:255 32 0] 
r 0.435310551 _22_ RTR  --- 14 message 32 [0 ffffffff 1d 0] ------- [29:255 -1:255 32 0] 
r 0.435310698 _26_ RTR  --- 14 message 32 [0 ffffffff 1d 0] ------- [29:255 -1:255 32 0] 
s 0.478322896 _8_ RTR  --- 15 message 32 [0 0 0 0] ------- [8:255 -1:255 32 0] 
r 0.478476914 _18_ RTR  --- 15 message 32 [0 ffffffff 8 0] ------- [8:255 -1:255 32 0] 
r 0.478477129 _9_ RTR  --- 15 message 32 [0 ffffffff 8 0] ------- [8:255 -1:255 32 0] 
r 0.478477147 _19_ RTR  --- 15 message 32 [0 ffffffff 8 0] ------- [8:255 -1:255 32 0] 
r 0.478477346 _43_ RTR  --- 15 message 32 [0 ffffffff 8 0] ------- [8:255 -1:255 32 0] 
r 0.478477380 _17_ RTR  --- 15 message 32 [0 ffffffff 8 0] ------- [8:255 -1:255 32 0] 
r 0.478477603 _42_ RTR  --- 15 message 32 [0 ffffffff 8 0] ------- [8:255 -1:255 32 0] 
r 0.478477900 _40_ RTR  --- 15 message 32 [0 ffffffff 8 0] ------- [8:255 -1:255 32 0] 
r 0.478478057 _5_ RTR  --- 15 message 32 [0 ffffffff 8 0] ------- [8:255 -1:255 32 0] 
r 0.478478058 _15_ RTR  --- 15 message 32 [0 ffffffff 8 0] ------- [8:255 -1:255 32 0] 
r 0.478478081 _6_ RTR  --- 15 message 32 [0 ffffffff 8 0] ------- [8:255 -1:255 32 0] 
r 0.478478085 _16_ RTR  --- 15 message 32 [0 ffffffff 8 0] ------- [8:255 -1:255 32 0] 
r 0.478478148 _7_ RTR  --- 15 message 32 [0 ffffffff 8 0] ------- [8:255 -1:255 32 0] 
r 0.478478699 _39_ RTR  --- 15 message 32 [0 ffffffff 8 0] ------- [8:255 -1:255 32 0] 
r 0.478479082 _41_ RTR  --- 15 message 32 [0 ffffffff 8 0] ------- [8:255 -1:255 32 0] 
r 0.478479773 _44_ RTR  --- 15 message 32 [0 ffffffff 8 0] ------- [8:255 -1:255 32 0] 
r 0.478479790 _23_ RTR  --- 15 message 32 [0 ffffffff 8 0] ------- [8:255 -1:255 32 0] 
r 0.478480042 _27_ RTR  --- 15 message 32 [0 ffffffff 8 0] ------- [8:255 -1:255 32 0] 
s 0.485501146 _30_ RTR  --- 16 message 32 [0 0 0 0] ------- [30:255 -1:255 32 0] 
r 0.485655617 _45_ RTR  --- 16 message 32 [0 ffffffff 1e 0] ------- [30:255 -1:255 32 0] 
r 0.485656146 _28_ RTR  --- 16 message 32 [0 ffffffff 1e 0] ------- [30:255 -1:255 32 0] 
r 0.485656520 _46_ RTR  --- 16 message 32 [0 ffffffff 1e 0] ------- [30:255 -1:255 32 0] 
r 0.485656812 _24_ RTR  --- 16 message 32 [0 ffffffff 1e 0] ------- [30:255 -1:255 32 0] 
r 0.485656812 _26_ RTR  --- 16 message 32 [0 ffffffff 1e 0] ------- [30:255 -1:255 32 0] 
r 0.485656812 _31_ RTR  --- 16 message 32 [0 ffffffff 1e 0] ------- [30:255 -1:255 32 0] 
r 0.485657089 _22_ RTR  --- 16 message 32 [0 ffffffff 1e 0] ------- [30:255 -1:255 32 0] 
r 0.485657089 _29_ RTR  --- 16 message 32 [0 ffffffff 1e 0] ------- [30:255 -1:255 32 0] 
r 0.485657173 _47_ RTR  --- 16 message 32 [0 ffffffff 1e 0] ------- [30:255 -1:255 32 0] 
r 0.485657503 _25_ RTR  --- 16 message 32 [0 ffffffff 1e 0] ------- [30:255 -1:255 32 0] 
r 0.485657549 _48_ RTR  --- 16 message 32 [0 ffffffff 1e 0] ------- [30:255 -1:255 32 0] 
r 0.485657695 _36_ RTR  --- 16 message 32 [0 ffffffff 1e 0] ------- [30:255 -1:255 32 0] 
r 0.485657812 _32_ RTR  --- 16 message 32 [0 ffffffff 1e 0] ------- [30:255 -1:255 32 0] 
r 0.485658121 _21_ RTR  --- 16 message 32 [0 ffffffff 1e 0] ------- [30:255 -1:255 32 0] 
r 0.485658290 _33_ RTR  --- 16 message 32 [0 ffffffff 1e 0] ------- [30:255 -1:255 32 0] 
r 0.485658479 _27_ RTR  --- 16 message 32 [0 ffffffff 1e 0] ------- [30:255 -1:255 32 0] 
r 0.485658626 _23_ RTR  --- 16 message 32 [0 ffffffff 1e 0] ------- [30:255 -1:255 32 0] 